LAMMPS data file. CGCMM style. atom_style charge generated by VMD/TopoTools v1.7 on Tue Jan 23 10:35:20 CST 2018
 450 atoms
 0 bonds
 0 angles
 0 dihedrals
 0 impropers
 3 atom types
 0 bond types
 0 angle types
 0 dihedral types
 0 improper types
 0.311881 31.531180  xlo xhi
 -0.371838 30.847461  ylo yhi
 0.189877 31.409176  zlo zhi

# Pair Coeffs
#
# 1  C
# 2  H
# 3  O

 Masses

 1 12.011000 # C
 2 1.008000 # H
 3 15.999000 # O

 Atoms # charge

1 1 0.000000 7.512907 12.696144 1.222267 # C
2 2 0.000000 7.293064 13.280151 2.138578 # H
3 2 0.000000 6.574419 12.213078 0.885761 # H
4 2 0.000000 7.898877 13.370358 0.431661 # H
5 2 0.000000 8.280431 11.922762 1.429509 # H
6 1 0.000000 17.806574 24.387297 27.622042 # C
7 2 0.000000 18.086016 23.317244 27.551170 # H
8 2 0.000000 18.618986 24.945084 28.124973 # H
9 2 0.000000 17.652828 24.795307 26.605509 # H
10 2 0.000000 16.868858 24.499981 28.200884 # H
11 1 0.000000 28.176352 28.598150 4.245717 # C
12 2 0.000000 28.150473 28.911257 5.309734 # H
13 2 0.000000 28.046900 27.498672 4.178238 # H
14 2 0.000000 27.356174 29.100349 3.692728 # H
15 2 0.000000 29.152168 28.882023 3.801199 # H
16 1 0.000000 22.150007 25.128214 28.066860 # C
17 2 0.000000 21.125515 24.902637 28.427025 # H
18 2 0.000000 22.095846 25.864819 27.239521 # H
19 2 0.000000 22.748917 25.552172 28.899555 # H
20 2 0.000000 22.628101 24.196703 27.699093 # H
21 1 0.000000 2.453894 23.115656 12.182387 # C
22 2 0.000000 2.186383 23.894815 11.439398 # H
23 2 0.000000 2.943186 23.588379 13.058826 # H
24 2 0.000000 1.536618 22.588297 12.515895 # H
25 2 0.000000 3.150639 22.388607 11.716926 # H
26 1 0.000000 20.041727 9.649338 9.227006 # C
27 2 0.000000 18.942373 9.717354 9.097461 # H
28 2 0.000000 20.452860 8.930484 8.488904 # H
29 2 0.000000 20.496565 10.648209 9.066968 # H
30 2 0.000000 20.274612 9.302651 10.254410 # H
31 1 0.000000 17.176332 29.291063 23.691725 # C
32 2 0.000000 17.689093 29.571611 24.635326 # H
33 2 0.000000 16.503160 28.429071 23.879333 # H
34 2 0.000000 16.582466 30.151720 23.320362 # H
35 2 0.000000 17.933434 29.011711 22.930431 # H
36 1 0.000000 24.382889 18.151424 23.654024 # C
37 2 0.000000 24.836990 17.163790 23.880636 # H
38 2 0.000000 24.517002 18.827648 24.524145 # H
39 2 0.000000 24.869120 18.591711 22.758146 # H
40 2 0.000000 23.300007 18.021513 23.452795 # H
41 1 0.000000 26.092327 4.913024 12.481383 # C
42 2 0.000000 25.548203 3.946845 12.466143 # H
43 2 0.000000 25.394203 5.734614 12.222538 # H
44 2 0.000000 26.507120 5.092254 13.494001 # H
45 2 0.000000 26.918934 4.878735 11.742715 # H
46 1 0.000000 23.748775 10.467182 28.429220 # C
47 2 0.000000 22.851826 10.290603 29.057768 # H
48 2 0.000000 23.447874 10.528139 27.363127 # H
49 2 0.000000 24.231319 11.419235 28.731798 # H
50 2 0.000000 24.464966 9.630675 28.563919 # H
51 1 0.000000 4.000963 9.175294 28.391365 # C
52 2 0.000000 3.274941 9.984970 28.610540 # H
53 2 0.000000 4.881875 9.276913 29.058435 # H
54 2 0.000000 3.518963 8.190793 28.562723 # H
55 2 0.000000 4.326254 9.248688 27.333139 # H
56 1 0.000000 7.574584 3.462496 1.102391 # C
57 2 0.000000 7.385296 3.849984 2.124015 # H
58 2 0.000000 7.986105 4.278961 0.474207 # H
59 2 0.000000 8.302545 2.626973 1.150956 # H
60 2 0.000000 6.625172 3.092911 0.663442 # H
61 1 0.000000 18.521936 6.957946 5.356139 # C
62 2 0.000000 17.635504 6.304327 5.492235 # H
63 2 0.000000 18.921631 7.236770 6.352843 # H
64 2 0.000000 19.300230 6.416788 4.778749 # H
65 2 0.000000 18.229799 7.874349 4.802820 # H
66 1 0.000000 25.282576 23.793859 29.513483 # C
67 2 0.000000 25.313234 24.643957 30.225164 # H
68 2 0.000000 25.330479 24.164526 28.469061 # H
69 2 0.000000 26.143036 23.124308 29.705395 # H
70 2 0.000000 24.342392 23.227974 29.659731 # H
71 1 0.000000 5.605605 10.813483 17.943541 # C
72 2 0.000000 6.713924 10.835619 17.982700 # H
73 2 0.000000 5.252318 9.764872 18.017313 # H
74 2 0.000000 5.195828 11.402251 18.789663 # H
75 2 0.000000 5.260910 11.250622 16.984085 # H
76 1 0.000000 5.560393 0.669440 17.905157 # C
77 2 0.000000 5.967844 0.070701 18.745214 # H
78 2 0.000000 4.466125 0.791799 18.035969 # H
79 2 0.000000 6.045693 1.666563 17.890354 # H
80 2 0.000000 5.760710 0.148061 16.947401 # H
81 1 0.000000 19.420027 26.928497 25.207905 # C
82 2 0.000000 20.165070 26.119722 25.354509 # H
83 2 0.000000 18.951784 27.185020 26.180565 # H
84 2 0.000000 19.925133 27.826212 24.794207 # H
85 2 0.000000 18.636898 26.581261 24.501957 # H
86 1 0.000000 18.663523 3.321689 5.895138 # C
87 2 0.000000 19.403152 3.994580 6.375690 # H
88 2 0.000000 18.609236 3.547364 4.810235 # H
89 2 0.000000 18.972864 2.265621 6.035821 # H
90 2 0.000000 17.668560 3.481170 6.359059 # H
91 1 0.000000 19.996284 23.304064 3.445623 # C
92 2 0.000000 19.183086 22.632271 3.103806 # H
93 2 0.000000 20.926500 23.075500 2.887857 # H
94 2 0.000000 19.702028 24.357407 3.264784 # H
95 2 0.000000 20.174572 23.150599 4.528738 # H
96 1 0.000000 1.514407 18.109388 16.790880 # C
97 2 0.000000 1.655027 17.865009 15.718024 # H
98 2 0.000000 0.715425 18.872087 16.897987 # H
99 2 0.000000 1.227176 17.190771 17.344959 # H
100 2 0.000000 2.461718 18.515295 17.202538 # H
101 1 0.000000 11.587511 16.454966 12.599828 # C
102 2 0.000000 11.730545 17.352919 13.234774 # H
103 2 0.000000 12.555243 16.151802 12.152072 # H
104 2 0.000000 11.197690 15.627013 13.225939 # H
105 2 0.000000 10.869456 16.686125 11.786588 # H
106 1 0.000000 0.391276 18.605425 20.204033 # C
107 2 0.000000 1.428952 18.535835 19.817909 # H
108 2 0.000000 0.386315 18.371374 21.288317 # H
109 2 0.000000 0.006943 19.633183 20.046030 # H
110 2 0.000000 -0.257938 17.885143 19.664534 # H
111 1 0.000000 28.222483 17.557278 14.744610 # C
112 2 0.000000 28.673037 18.397499 15.311451 # H
113 2 0.000000 27.116547 17.620882 14.803900 # H
114 2 0.000000 28.538933 17.613953 13.682928 # H
115 2 0.000000 28.561745 16.595749 15.180892 # H
116 1 0.000000 16.626820 30.349434 19.254742 # C
117 2 0.000000 16.576994 30.854309 18.267963 # H
118 2 0.000000 17.210215 29.410574 19.160465 # H
119 2 0.000000 17.119993 31.019108 19.988997 # H
120 2 0.000000 15.599887 30.113207 19.601620 # H
121 1 0.000000 2.370686 10.711188 3.598244 # C
122 2 0.000000 1.752066 11.288912 2.884332 # H
123 2 0.000000 2.036011 9.654387 3.607199 # H
124 2 0.000000 3.431993 10.765368 3.283396 # H
125 2 0.000000 2.259664 11.138994 4.614496 # H
126 1 0.000000 14.714211 18.495251 12.093926 # C
127 2 0.000000 13.953622 18.246893 11.326835 # H
128 2 0.000000 15.450734 19.206938 11.669548 # H
129 2 0.000000 14.216505 18.954657 12.970745 # H
130 2 0.000000 15.233995 17.570278 12.411796 # H
131 1 0.000000 2.573044 13.879701 6.342045 # C
132 2 0.000000 1.784909 14.583145 6.679708 # H
133 2 0.000000 3.540045 14.162695 6.803521 # H
134 2 0.000000 2.324507 12.842208 6.646009 # H
135 2 0.000000 2.648730 13.935966 5.237586 # H
136 1 0.000000 7.022485 21.640875 14.844705 # C
137 2 0.000000 6.188539 22.065212 15.440388 # H
138 2 0.000000 6.825662 21.802465 13.765100 # H
139 2 0.000000 7.971099 22.142048 15.126595 # H
140 2 0.000000 7.104222 20.553343 15.046759 # H
141 1 0.000000 17.778423 4.588300 23.225204 # C
142 2 0.000000 17.658762 3.653398 22.640142 # H
143 2 0.000000 18.423065 5.294555 22.662579 # H
144 2 0.000000 16.782658 5.047099 23.394907 # H
145 2 0.000000 18.249201 4.357947 24.203014 # H
146 1 0.000000 13.451580 27.417336 2.358383 # C
147 2 0.000000 14.501469 27.340603 2.708981 # H
148 2 0.000000 12.944226 28.253912 2.881688 # H
149 2 0.000000 13.441875 27.605766 1.265234 # H
150 2 0.000000 12.918727 26.469038 2.576555 # H
151 1 0.000000 3.180135 0.038029 6.588248 # C
152 2 0.000000 3.282190 -1.042138 6.357125 # H
153 2 0.000000 4.087830 0.576743 6.246968 # H
154 2 0.000000 2.290218 0.445761 6.066327 # H
155 2 0.000000 3.060362 0.172401 7.682952 # H
156 1 0.000000 3.277478 20.430071 14.356483 # C
157 2 0.000000 3.987620 21.248442 14.122396 # H
158 2 0.000000 2.488563 20.808121 15.037704 # H
159 2 0.000000 2.812479 20.069685 13.417035 # H
160 2 0.000000 3.820337 19.596016 14.845419 # H
161 1 0.000000 3.768948 3.637079 19.234514 # C
162 2 0.000000 3.002704 4.361297 19.577761 # H
163 2 0.000000 4.780013 4.040314 19.445187 # H
164 2 0.000000 3.632621 2.676800 19.771015 # H
165 2 0.000000 3.661121 3.468582 18.143963 # H
166 1 0.000000 7.678059 10.391099 4.557078 # C
167 2 0.000000 7.727334 9.381763 5.014877 # H
168 2 0.000000 8.635786 10.921511 4.736621 # H
169 2 0.000000 7.504988 10.298662 3.465219 # H
170 2 0.000000 6.844545 10.962713 5.014359 # H
171 1 0.000000 18.092993 16.011971 13.914699 # C
172 2 0.000000 18.740749 15.862409 13.026587 # H
173 2 0.000000 17.214624 16.626850 13.632292 # H
174 2 0.000000 17.748278 15.027043 14.291207 # H
175 2 0.000000 18.666977 16.532421 14.708765 # H
176 1 0.000000 21.989296 30.003984 12.304132 # C
177 2 0.000000 21.161793 30.701685 12.547482 # H
178 2 0.000000 21.571012 29.011389 12.038397 # H
179 2 0.000000 22.568441 30.402838 11.446122 # H
180 2 0.000000 22.656105 29.899960 13.184600 # H
181 1 0.000000 3.883785 30.916201 1.272825 # C
182 2 0.000000 4.804961 30.797918 0.665980 # H
183 2 0.000000 3.140754 31.512800 0.704032 # H
184 2 0.000000 3.457598 29.916082 1.493395 # H
185 2 0.000000 4.131149 31.432838 2.223825 # H
186 1 0.000000 19.670885 11.118933 23.818117 # C
187 2 0.000000 20.470562 10.742413 23.147673 # H
188 2 0.000000 18.685516 10.997324 23.323000 # H
189 2 0.000000 19.681814 10.543065 24.766308 # H
190 2 0.000000 19.845695 12.192725 24.035456 # H
191 1 0.000000 20.955069 20.028131 4.652501 # C
192 2 0.000000 19.897129 20.047554 4.320144 # H
193 2 0.000000 21.125320 20.831272 5.397848 # H
194 2 0.000000 21.175428 19.043255 5.112192 # H
195 2 0.000000 21.621967 20.192089 3.781476 # H
196 1 0.000000 29.363573 30.557581 16.003115 # C
197 2 0.000000 30.134571 31.007008 15.344021 # H
198 2 0.000000 29.798555 29.691526 16.543016 # H
199 2 0.000000 29.016464 31.314201 16.736509 # H
200 2 0.000000 28.504402 30.217175 15.389354 # H
201 1 0.000000 23.518833 24.710398 24.400251 # C
202 2 0.000000 22.791056 25.546360 24.402147 # H
203 2 0.000000 23.909754 24.572588 23.371803 # H
204 2 0.000000 24.353605 24.941389 25.091801 # H
205 2 0.000000 23.019907 23.780048 24.736677 # H
206 1 0.000000 16.222782 27.996328 27.609457 # C
207 2 0.000000 15.961727 28.976913 28.057196 # H
208 2 0.000000 17.101149 27.572691 28.136635 # H
209 2 0.000000 15.363588 27.302259 27.708536 # H
210 2 0.000000 16.464859 28.132174 26.536200 # H
211 1 0.000000 3.154415 0.232849 12.268506 # C
212 2 0.000000 2.595519 0.703079 11.433383 # H
213 2 0.000000 2.855008 0.705763 13.226418 # H
214 2 0.000000 2.923396 -0.851659 12.303427 # H
215 2 0.000000 4.243459 0.374046 12.110812 # H
216 1 0.000000 15.041374 30.278095 4.107951 # C
217 2 0.000000 15.844970 30.981575 4.407524 # H
218 2 0.000000 15.020489 30.190971 3.002265 # H
219 2 0.000000 15.236566 29.281532 4.554429 # H
220 2 0.000000 14.062954 30.657583 4.467553 # H
221 1 0.000000 26.056602 13.509369 23.714190 # C
222 2 0.000000 25.100834 13.961226 23.378153 # H
223 2 0.000000 25.843344 12.630198 24.355598 # H
224 2 0.000000 26.647282 13.187756 22.832001 # H
225 2 0.000000 26.637249 14.257223 24.291924 # H
226 1 0.000000 26.036745 30.461348 27.141870 # C
227 2 0.000000 24.939249 30.360538 27.016701 # H
228 2 0.000000 26.331741 31.517761 26.975737 # H
229 2 0.000000 26.319607 30.152941 28.169153 # H
230 2 0.000000 26.556196 29.813620 26.406265 # H
231 1 0.000000 20.752470 10.557529 5.830489 # C
232 2 0.000000 19.936687 9.833352 5.628791 # H
233 2 0.000000 20.391220 11.328241 6.541246 # H
234 2 0.000000 21.618164 10.022259 6.271376 # H
235 2 0.000000 21.064207 11.047949 4.885516 # H
236 1 0.000000 1.684845 27.212400 5.419004 # C
237 2 0.000000 1.397339 28.282362 5.473386 # H
238 2 0.000000 2.257275 27.030441 4.486580 # H
239 2 0.000000 2.314518 26.953192 6.294707 # H
240 2 0.000000 0.771169 26.583212 5.420438 # H
241 1 0.000000 25.836212 16.000465 20.900839 # C
242 2 0.000000 25.484978 14.960406 20.752592 # H
243 2 0.000000 26.316870 16.092398 21.895515 # H
244 2 0.000000 26.567533 16.266430 20.111246 # H
245 2 0.000000 24.967047 16.683542 20.843285 # H
246 1 0.000000 7.045937 17.999496 28.207047 # C
247 2 0.000000 7.352602 19.064991 28.245253 # H
248 2 0.000000 7.064922 17.646683 27.155327 # H
249 2 0.000000 7.747166 17.390863 28.814169 # H
250 2 0.000000 6.018904 17.895523 28.613386 # H
251 3 0.000000 12.401780 14.612581 22.495070 # O
252 3 0.000000 11.595758 13.888338 22.106169 # O
253 3 0.000000 4.886233 6.957010 5.931715 # O
254 3 0.000000 3.799694 6.626410 5.742980 # O
255 3 0.000000 7.183741 9.090479 0.638752 # O
256 3 0.000000 6.104619 9.359606 0.936382 # O
257 3 0.000000 29.237286 0.861950 4.132556 # O
258 3 0.000000 28.158436 1.203729 4.342624 # O
259 3 0.000000 28.936153 -0.024449 28.978765 # O
260 3 0.000000 28.494703 1.003427 29.251751 # O
261 3 0.000000 31.041489 15.255566 3.329474 # O
262 3 0.000000 31.996820 15.745741 3.744926 # O
263 3 0.000000 19.802391 27.560581 29.003725 # O
264 3 0.000000 20.624418 28.266800 28.620462 # O
265 3 0.000000 22.583370 15.326962 22.431400 # O
266 3 0.000000 22.467989 15.159142 23.563652 # O
267 3 0.000000 4.395843 6.190244 21.610027 # O
268 3 0.000000 4.158880 6.861462 20.705578 # O
269 3 0.000000 8.644225 5.160213 14.555566 # O
270 3 0.000000 9.394353 4.557494 13.923795 # O
271 3 0.000000 7.222636 6.481842 3.408208 # O
272 3 0.000000 8.306468 6.773174 3.154130 # O
273 3 0.000000 11.053572 7.658031 21.620323 # O
274 3 0.000000 10.128862 6.975450 21.681574 # O
275 3 0.000000 1.181530 13.993992 31.352970 # O
276 3 0.000000 0.947627 13.326838 32.261963 # O
277 3 0.000000 17.805727 24.786768 5.980072 # O
278 3 0.000000 17.529118 23.675983 5.860807 # O
279 3 0.000000 22.770222 17.260651 19.185816 # O
280 3 0.000000 22.550655 18.194109 18.549187 # O
281 3 0.000000 28.796961 7.320642 13.297597 # O
282 3 0.000000 29.397322 6.394698 12.970828 # O
283 3 0.000000 12.051543 4.912621 19.742178 # O
284 3 0.000000 12.613391 4.570711 20.686708 # O
285 3 0.000000 8.429627 0.190875 26.591507 # O
286 3 0.000000 8.767938 0.169427 25.491510 # O
287 3 0.000000 13.417050 6.581560 30.817764 # O
288 3 0.000000 14.567251 6.552061 30.846436 # O
289 3 0.000000 1.157942 7.241882 22.570518 # O
290 3 0.000000 1.659131 6.952770 23.565464 # O
291 3 0.000000 10.816007 5.632974 9.548821 # O
292 3 0.000000 11.790565 5.112921 9.225647 # O
293 3 0.000000 20.507015 22.526611 26.084225 # O
294 3 0.000000 20.193665 23.284939 25.280621 # O
295 3 0.000000 10.146235 7.658918 18.152891 # O
296 3 0.000000 9.151885 8.188988 18.386839 # O
297 3 0.000000 0.177442 16.392981 12.993631 # O
298 3 0.000000 0.390056 16.107748 14.088505 # O
299 3 0.000000 26.728930 10.892182 26.725996 # O
300 3 0.000000 27.599602 11.630802 26.580326 # O
301 3 0.000000 12.150550 19.595812 22.637079 # O
302 3 0.000000 11.471179 20.047968 21.825497 # O
303 3 0.000000 15.072693 0.494540 7.282097 # O
304 3 0.000000 16.155716 0.883064 7.271090 # O
305 3 0.000000 27.243002 0.312895 8.567997 # O
306 3 0.000000 27.473652 0.806042 7.553878 # O
307 3 0.000000 19.403000 23.634771 -0.662909 # O
308 3 0.000000 19.868744 22.771717 -0.062911 # O
309 3 0.000000 22.965729 6.482529 13.558916 # O
310 3 0.000000 22.275888 6.665006 14.462021 # O
311 3 0.000000 3.776062 11.792328 31.565449 # O
312 3 0.000000 3.960478 12.140485 30.484407 # O
313 3 0.000000 9.717697 3.221357 4.050679 # O
314 3 0.000000 10.355371 3.800612 3.287976 # O
315 3 0.000000 6.938852 26.405878 1.857009 # O
316 3 0.000000 7.944398 25.902605 1.611551 # O
317 3 0.000000 14.096227 4.301550 28.265856 # O
318 3 0.000000 14.172156 5.261420 27.635359 # O
319 3 0.000000 26.067738 26.239941 19.718184 # O
320 3 0.000000 26.793312 25.872726 18.903704 # O
321 3 0.000000 11.312965 29.085608 26.972967 # O
322 3 0.000000 10.423399 28.501394 26.534821 # O
323 3 0.000000 25.049194 27.212210 28.323391 # O
324 3 0.000000 25.382019 26.906282 27.265541 # O
325 3 0.000000 19.667807 11.348459 12.496199 # O
326 3 0.000000 19.413748 12.333181 13.035591 # O
327 3 0.000000 30.537506 12.476339 4.837364 # O
328 3 0.000000 30.057938 13.055706 5.708417 # O
329 3 0.000000 2.515144 17.475266 6.068738 # O
330 3 0.000000 3.620918 17.347069 6.359530 # O
331 3 0.000000 5.872530 5.864139 17.114841 # O
332 3 0.000000 6.119304 4.799380 16.756371 # O
333 3 0.000000 7.791640 16.696081 2.714842 # O
334 3 0.000000 8.017567 16.659798 1.587116 # O
335 3 0.000000 3.169758 31.210846 20.822016 # O
336 3 0.000000 3.871342 30.320726 20.621256 # O
337 3 0.000000 14.377773 11.673913 22.084084 # O
338 3 0.000000 14.587210 12.246117 21.107416 # O
339 3 0.000000 28.837500 30.323307 1.137918 # O
340 3 0.000000 27.775284 30.737278 0.982591 # O
341 3 0.000000 12.444540 22.853998 23.561403 # O
342 3 0.000000 13.089283 22.988852 22.616919 # O
343 3 0.000000 3.627444 20.317106 20.710825 # O
344 3 0.000000 3.120727 20.804379 21.622702 # O
345 3 0.000000 18.125454 0.857729 14.302426 # O
346 3 0.000000 17.511911 0.277209 15.084055 # O
347 3 0.000000 10.703650 1.900380 10.147383 # O
348 3 0.000000 10.261742 1.043840 9.517911 # O
349 3 0.000000 13.265443 30.989006 10.892723 # O
350 3 0.000000 14.405799 31.065081 10.757461 # O
351 3 0.000000 6.341822 28.787800 11.684813 # O
352 3 0.000000 7.236825 28.263386 11.185999 # O
353 3 0.000000 30.663401 18.745150 8.931391 # O
354 3 0.000000 30.206652 18.388134 9.925826 # O
355 3 0.000000 2.868799 8.612877 31.793242 # O
356 3 0.000000 1.974627 9.177921 31.341398 # O
357 3 0.000000 13.962415 1.199929 14.052629 # O
358 3 0.000000 14.675785 1.896010 13.477028 # O
359 3 0.000000 2.317313 18.403595 11.146162 # O
360 3 0.000000 2.287778 17.628349 10.296734 # O
361 3 0.000000 5.563913 30.796774 24.608023 # O
362 3 0.000000 4.599529 30.632284 24.001566 # O
363 3 0.000000 18.121441 29.701279 12.090458 # O
364 3 0.000000 18.627544 29.103333 12.934056 # O
365 3 0.000000 20.697542 15.504065 28.724478 # O
366 3 0.000000 21.565985 16.158833 29.100967 # O
367 3 0.000000 14.779883 31.057085 26.070719 # O
368 3 0.000000 14.191536 30.291620 25.443321 # O
369 3 0.000000 9.875581 3.531845 22.264303 # O
370 3 0.000000 9.837103 2.671572 23.027843 # O
371 3 0.000000 8.019451 11.065842 24.456163 # O
372 3 0.000000 7.485708 10.216983 25.021290 # O
373 3 0.000000 15.221710 14.742066 11.232635 # O
374 3 0.000000 16.267807 14.264540 11.165832 # O
375 3 0.000000 27.403988 27.136940 0.895033 # O
376 3 0.000000 26.542679 27.488598 0.217015 # O
377 3 0.000000 4.958605 15.941600 9.189624 # O
378 3 0.000000 5.854455 16.013084 8.470329 # O
379 3 0.000000 7.084914 14.009678 18.263668 # O
380 3 0.000000 6.801909 14.046715 17.149553 # O
381 3 0.000000 22.071451 25.799355 0.608901 # O
382 3 0.000000 21.004917 26.112654 0.911507 # O
383 3 0.000000 6.249753 1.514000 21.412985 # O
384 3 0.000000 6.895839 2.274178 20.839088 # O
385 3 0.000000 7.098576 23.463366 3.878785 # O
386 3 0.000000 6.323193 24.105690 4.436314 # O
387 3 0.000000 6.824726 2.089550 14.739533 # O
388 3 0.000000 7.796078 1.926720 15.335044 # O
389 3 0.000000 -0.153761 19.696623 12.751329 # O
390 3 0.000000 -0.044726 19.449350 13.870753 # O
391 3 0.000000 7.701767 9.590685 15.386619 # O
392 3 0.000000 7.537508 8.477334 15.142618 # O
393 3 0.000000 28.575829 25.900644 6.752750 # O
394 3 0.000000 28.439135 25.157915 5.883756 # O
395 3 0.000000 14.560246 12.235278 14.573541 # O
396 3 0.000000 14.712376 11.545057 15.481966 # O
397 3 0.000000 21.911997 16.523439 12.373284 # O
398 3 0.000000 23.048407 16.552578 12.192640 # O
399 3 0.000000 9.888121 15.004483 16.083124 # O
400 3 0.000000 10.324901 14.033672 16.519402 # O
401 3 0.000000 1.314081 5.905841 1.786004 # O
402 3 0.000000 1.277636 6.744936 2.570716 # O
403 3 0.000000 26.261457 21.456766 23.079845 # O
404 3 0.000000 26.250349 22.604322 22.987753 # O
405 3 0.000000 18.884235 1.039066 23.681007 # O
406 3 0.000000 18.363544 1.164597 24.699633 # O
407 3 0.000000 0.811752 24.342367 7.581900 # O
408 3 0.000000 -0.117650 23.678694 7.439067 # O
409 3 0.000000 11.919878 20.803827 11.852659 # O
410 3 0.000000 11.192314 19.944723 11.613934 # O
411 3 0.000000 24.316414 21.530140 0.965966 # O
412 3 0.000000 25.187218 20.897678 0.558060 # O
413 3 0.000000 26.864540 29.703388 19.332130 # O
414 3 0.000000 27.788857 29.215834 18.849558 # O
415 3 0.000000 7.880781 19.717627 0.364418 # O
416 3 0.000000 8.357502 20.723286 0.658824 # O
417 3 0.000000 28.307217 25.629307 29.050371 # O
418 3 0.000000 28.124931 25.198435 28.000618 # O
419 3 0.000000 9.914733 30.571440 12.365359 # O
420 3 0.000000 8.907741 31.108423 12.514646 # O
421 3 0.000000 26.129168 8.302985 9.297684 # O
422 3 0.000000 26.266949 7.374768 9.964072 # O
423 3 0.000000 29.588406 21.480099 22.028595 # O
424 3 0.000000 29.591171 20.488441 22.613386 # O
425 3 0.000000 3.437564 14.113382 17.676075 # O
426 3 0.000000 3.338530 13.819745 16.567495 # O
427 3 0.000000 1.262908 15.051801 20.367855 # O
428 3 0.000000 0.677445 15.254556 21.337839 # O
429 3 0.000000 15.202132 20.608753 23.761927 # O
430 3 0.000000 15.478148 21.212124 24.702274 # O
431 3 0.000000 1.221797 21.579029 18.133337 # O
432 3 0.000000 2.324624 21.470058 17.820646 # O
433 3 0.000000 6.480507 0.501244 4.251297 # O
434 3 0.000000 7.050000 0.977883 3.373440 # O
435 3 0.000000 8.356944 22.599537 6.927419 # O
436 3 0.000000 7.504897 21.925774 7.307692 # O
437 3 0.000000 24.185013 3.880179 9.710478 # O
438 3 0.000000 23.289165 4.207317 10.354765 # O
439 3 0.000000 25.649483 19.438463 19.852993 # O
440 3 0.000000 25.849689 19.049492 18.788597 # O
441 3 0.000000 4.905773 5.867314 32.191273 # O
442 3 0.000000 5.233277 6.250049 31.156094 # O
443 3 0.000000 4.831054 15.087309 1.259210 # O
444 3 0.000000 4.394600 14.455006 2.116718 # O
445 3 0.000000 22.543125 16.214449 15.717601 # O
446 3 0.000000 23.641369 16.551529 15.786575 # O
447 3 0.000000 25.517822 22.092669 26.198050 # O
448 3 0.000000 24.906485 21.319601 26.791586 # O
449 3 0.000000 29.744848 22.523977 14.403302 # O
450 3 0.000000 28.939962 21.788813 14.772535 # O

